
     Program PWSCF v.7.0 starts on 13Sep2022 at 21:38:20 

     This program is part of the open-source Quantum ESPRESSO suite
     for quantum simulation of materials; please cite
         "P. Giannozzi et al., J. Phys.:Condens. Matter 21 395502 (2009);
         "P. Giannozzi et al., J. Phys.:Condens. Matter 29 465901 (2017);
         "P. Giannozzi et al., J. Chem. Phys. 152 154105 (2020);
          URL http://www.quantum-espresso.org", 
     in publications or presentations arising from this work. More details at
     http://www.quantum-espresso.org/quote

     Parallel version (MPI & OpenMP), running on      48 processor cores
     Number of MPI processes:                48
     Threads/MPI process:                     1

     MPI processes distributed on     1 nodes
     R & G space division:  proc/nbgrp/npool/nimage =      48
     154334 MiB available memory on the printing compute node when the environment starts
 
     Reading input from CeO2.in

     Current dimensions of program PWSCF are:
     Max number of different atomic species (ntypx) = 10
     Max number of k-points (npk) =  40000
     Max angular momentum in pseudopotentials (lmaxx) =  4
     file O.pbe-n-kjpaw_psl.0.1.UPF: wavefunction(s)  2P renormalized
     Found identity + (  0.0000  0.0000 -0.5000) symmetry
     This is a supercell, fractional translations are disabled
     Message from routine setup:
     using ibrav=0 with symmetry is DISCOURAGED, use correct ibrav instead

     Subspace diagonalization in iterative solution of the eigenvalue problem:
     a serial algorithm will be used

 
     Parallelization info
     --------------------
     sticks:   dense  smooth     PW     G-vecs:    dense   smooth      PW
     Min         122      61     17                 6202     2189     321
     Max         123      62     18                 6208     2196     324
     Sum        5887    2929    823               297813   105275   15473
 
     Using Slab Decomposition
 


     bravais-lattice index     =            0
     lattice parameter (alat)  =      14.6116  a.u.
     unit-cell volume          =    2205.8760 (a.u.)^3
     number of atoms/cell      =           24
     number of atomic types    =            2
     number of electrons       =       192.00
     number of Kohn-Sham states=          115
     kinetic-energy cutoff     =      50.0000  Ry
     charge density cutoff     =     400.0000  Ry
     scf convergence threshold =      1.0E-04
     mixing beta               =       0.4000
     number of iterations used =            8  plain     mixing
     Exchange-correlation= SLA  PW   PBX  PBC
                           (   1   4   3   4   0   0   0)

     celldm(1)=  14.611631  celldm(2)=   0.000000  celldm(3)=   0.000000
     celldm(4)=   0.000000  celldm(5)=   0.000000  celldm(6)=   0.000000

     crystal axes: (cart. coord. in units of alat)
               a(1) = (   1.000000   0.000000   0.000000 )  
               a(2) = (   0.500000   0.866025   0.000000 )  
               a(3) = (   0.500000   0.288675   0.816497 )  

     reciprocal axes: (cart. coord. in units 2 pi/alat)
               b(1) = (  1.000000 -0.577350 -0.408248 )  
               b(2) = (  0.000000  1.154700 -0.408248 )  
               b(3) = (  0.000000  0.000000  1.224745 )  


     PseudoPot. # 1 for Ce read from file:
     ./pseudo/Ce.GGA-PBE-paw-v1.0.UPF
     MD5 check sum: f2b950f613061344c13339c8d844425d
     Pseudo is Projector augmented-wave + core cor, Zval = 12.0
     Generated using ATOMPAW code
     Shape of augmentation charge: BESSEL
     Using radial grid of 1102 points,  8 beta functions with: 
                l(1) =   0
                l(2) =   0
                l(3) =   1
                l(4) =   1
                l(5) =   2
                l(6) =   2
                l(7) =   3
                l(8) =   3
     Q(r) pseudized with 0 coefficients 


     PseudoPot. # 2 for O  read from file:
     ./pseudo/O.pbe-n-kjpaw_psl.0.1.UPF
     MD5 check sum: 0234752ac141de4415c5fc33072bef88
     Pseudo is Projector augmented-wave + core cor, Zval =  6.0
     Generated using "atomic" code by A. Dal Corso  v.5.0.99 svn rev. 10869
     Shape of augmentation charge: BESSEL
     Using radial grid of 1095 points,  4 beta functions with: 
                l(1) =   0
                l(2) =   0
                l(3) =   1
                l(4) =   1
     Q(r) pseudized with 0 coefficients 


     atomic species   valence    mass     pseudopotential
        Ce            12.00   140.11600     Ce( 1.00)
        O              6.00    15.99940     O ( 1.00)

     12 Sym. Ops., with inversion, found



   Cartesian axes

     site n.     atom                  positions (alat units)
         1           Ce  tau(   1) = (   0.0000000   0.0000000   0.0000000  )
         2           Ce  tau(   2) = (   0.2500000   0.1443376   0.4082483  )
         3           Ce  tau(   3) = (   0.2500000   0.4330127   0.0000000  )
         4           Ce  tau(   4) = (   0.4999999   0.5773503   0.4082483  )
         5           Ce  tau(   5) = (   0.5000000   0.0000000   0.0000000  )
         6           Ce  tau(   6) = (   0.7500000   0.1443376   0.4082483  )
         7           Ce  tau(   7) = (   0.7500000   0.4330127   0.0000000  )
         8           Ce  tau(   8) = (   0.9999999   0.5773503   0.4082483  )
         9           O   tau(   9) = (   0.7500000   0.4330127   0.3061862  )
        10           O   tau(  10) = (   0.9999999   0.5773503   0.7144345  )
        11           O   tau(  11) = (   0.9999999   0.8660254   0.3061862  )
        12           O   tau(  12) = (   1.2499999   1.0103630   0.7144345  )
        13           O   tau(  13) = (   1.2500000   0.4330127   0.3061862  )
        14           O   tau(  14) = (   1.4999999   0.5773503   0.7144345  )
        15           O   tau(  15) = (   1.4999999   0.8660254   0.3061862  )
        16           O   tau(  16) = (   1.7499999   1.0103630   0.7144345  )
        17           O   tau(  17) = (   0.2500000   0.1443376   0.1020621  )
        18           O   tau(  18) = (   0.5000000   0.2886751   0.5103104  )
        19           O   tau(  19) = (   0.5000000   0.5773503   0.1020621  )
        20           O   tau(  20) = (   0.7499999   0.7216879   0.5103104  )
        21           O   tau(  21) = (   0.7500000   0.1443376   0.1020621  )
        22           O   tau(  22) = (   1.0000000   0.2886751   0.5103104  )
        23           O   tau(  23) = (   1.0000000   0.5773503   0.1020621  )
        24           O   tau(  24) = (   1.2499999   0.7216879   0.5103104  )

     number of k points=    20  Methfessel-Paxton smearing, width (Ry)=  0.0100
                       cart. coord. in units 2pi/alat
        k(    1) = (   0.1250000  -0.0721688  -0.0510310), wk =   0.0625000
        k(    2) = (   0.1250000  -0.0721688   0.2551552), wk =   0.0625000
        k(    3) = (   0.1250000  -0.0721688  -0.6634034), wk =   0.0625000
        k(    4) = (   0.1250000  -0.0721688  -0.3572172), wk =   0.0625000
        k(    5) = (   0.1250000   0.2165064  -0.1530931), wk =   0.1250000
        k(    6) = (   0.1250000   0.2165064  -0.7654655), wk =   0.1250000
        k(    7) = (   0.1250000  -0.6495190   0.1530931), wk =   0.1250000
        k(    8) = (   0.1250000  -0.6495190   0.4592793), wk =   0.1250000
        k(    9) = (   0.1250000  -0.6495190  -0.4592793), wk =   0.1250000
        k(   10) = (   0.1250000  -0.6495190  -0.1530931), wk =   0.1250000
        k(   11) = (   0.1250000  -0.3608439   0.0510310), wk =   0.1250000
        k(   12) = (   0.1250000  -0.3608439   0.3572172), wk =   0.1250000
        k(   13) = (   0.1250000  -0.3608439  -0.5613414), wk =   0.1250000
        k(   14) = (   0.1250000  -0.3608439  -0.2551552), wk =   0.1250000
        k(   15) = (   0.3750000  -0.2165063  -0.1530931), wk =   0.0625000
        k(   16) = (   0.3750000  -0.2165063   0.1530931), wk =   0.0625000
        k(   17) = (   0.3750000  -0.2165063  -0.7654655), wk =   0.0625000
        k(   18) = (   0.3750000  -0.2165063  -0.4592793), wk =   0.0625000
        k(   19) = (   0.3750000  -0.5051814  -0.0510310), wk =   0.1250000
        k(   20) = (   0.3750000  -0.5051814   0.2551552), wk =   0.1250000

     Dense  grid:   297813 G-vectors     FFT dimensions: (  96,  96,  96)

     Smooth grid:   105275 G-vectors     FFT dimensions: (  72,  72,  72)

     Estimated max dynamical RAM per process >      77.49 MB

     Estimated total dynamical RAM >       3.63 GB

     Check: negative core charge=   -0.000002

     Initial potential from superposition of free atoms

     starting charge     191.9441, renormalised to     192.0000
     Starting wfcs are  320 randomized atomic wfcs
     Checking if some PAW data can be deallocated... 

     total cpu time spent up to now is        3.8 secs

     per-process dynamical memory:   299.8 Mb

     Self-consistent Calculation

     iteration #  1     ecut=    50.00 Ry     beta= 0.40
     Davidson diagonalization with overlap
     ethr =  1.00E-02,  avg # of iterations =  1.0

     total cpu time spent up to now is        6.5 secs

     total energy              =   -4520.55350215 Ry
     estimated scf accuracy    <      13.45115503 Ry

     iteration #  2     ecut=    50.00 Ry     beta= 0.40
     Davidson diagonalization with overlap
     ethr =  7.01E-03,  avg # of iterations =  6.0
     Minimization algorithm failed to find Fermi energy: reverting to bisection
     Possible cause: smearing is larger than the electronic band-gap.

     total cpu time spent up to now is       11.6 secs

     total energy              =   -4504.02872684 Ry
     estimated scf accuracy    <     194.52767674 Ry

     iteration #  3     ecut=    50.00 Ry     beta= 0.40
     Davidson diagonalization with overlap
     ethr =  7.01E-03,  avg # of iterations =  9.1

     total cpu time spent up to now is       17.5 secs

     total energy              =   -4525.34271590 Ry
     estimated scf accuracy    <      10.26208284 Ry

     iteration #  4     ecut=    50.00 Ry     beta= 0.40
     Davidson diagonalization with overlap
     ethr =  5.34E-03,  avg # of iterations =  6.3

     total cpu time spent up to now is       21.6 secs

     total energy              =   -4527.64575625 Ry
     estimated scf accuracy    <       3.88049570 Ry

     iteration #  5     ecut=    50.00 Ry     beta= 0.40
     Davidson diagonalization with overlap
     ethr =  2.02E-03,  avg # of iterations =  2.0

     total cpu time spent up to now is       24.7 secs

     total energy              =   -4527.15718545 Ry
     estimated scf accuracy    <       3.26878915 Ry

     iteration #  6     ecut=    50.00 Ry     beta= 0.40
     Davidson diagonalization with overlap
     ethr =  1.70E-03,  avg # of iterations =  1.1

     total cpu time spent up to now is       27.4 secs

     total energy              =   -4526.58679164 Ry
     estimated scf accuracy    <       2.06026960 Ry

     iteration #  7     ecut=    50.00 Ry     beta= 0.40
     Davidson diagonalization with overlap
     ethr =  1.07E-03,  avg # of iterations = 10.2

     total cpu time spent up to now is       32.8 secs

     total energy              =   -4526.44059714 Ry
     estimated scf accuracy    <      10.36399514 Ry

     iteration #  8     ecut=    50.00 Ry     beta= 0.40
     Davidson diagonalization with overlap
     ethr =  1.07E-03,  avg # of iterations =  1.6

     total cpu time spent up to now is       35.7 secs

     total energy              =   -4526.67406667 Ry
     estimated scf accuracy    <       0.63082866 Ry

     iteration #  9     ecut=    50.00 Ry     beta= 0.40
     Davidson diagonalization with overlap
     ethr =  3.29E-04,  avg # of iterations =  3.8

     total cpu time spent up to now is       39.1 secs

     total energy              =   -4526.68558175 Ry
     estimated scf accuracy    <       0.26972051 Ry

     iteration # 10     ecut=    50.00 Ry     beta= 0.40
     Davidson diagonalization with overlap
     ethr =  1.40E-04,  avg # of iterations =  8.7

     total cpu time spent up to now is       44.3 secs

     total energy              =   -4526.73012681 Ry
     estimated scf accuracy    <       0.16977998 Ry

     iteration # 11     ecut=    50.00 Ry     beta= 0.40
     Davidson diagonalization with overlap
     c_bands:  1 eigenvalues not converged
     ethr =  8.84E-05,  avg # of iterations =  3.5

     total cpu time spent up to now is       47.6 secs

     total energy              =   -4526.76474936 Ry
     estimated scf accuracy    <       0.30147203 Ry

     iteration # 12     ecut=    50.00 Ry     beta= 0.40
     Davidson diagonalization with overlap
     ethr =  8.84E-05,  avg # of iterations =  2.0

     total cpu time spent up to now is       50.6 secs

     total energy              =   -4526.66670307 Ry
     estimated scf accuracy    <       1.79610681 Ry

     iteration # 13     ecut=    50.00 Ry     beta= 0.40
     Davidson diagonalization with overlap
     ethr =  8.84E-05,  avg # of iterations =  3.7

     total cpu time spent up to now is       54.1 secs

     total energy              =   -4526.71589020 Ry
     estimated scf accuracy    <       0.12549096 Ry

     iteration # 14     ecut=    50.00 Ry     beta= 0.40
     Davidson diagonalization with overlap
     ethr =  6.54E-05,  avg # of iterations =  3.5

     total cpu time spent up to now is       57.5 secs

     total energy              =   -4526.71560672 Ry
     estimated scf accuracy    <       0.07572627 Ry

     iteration # 15     ecut=    50.00 Ry     beta= 0.40
     Davidson diagonalization with overlap
     c_bands:  2 eigenvalues not converged
     c_bands:  1 eigenvalues not converged
     c_bands:  1 eigenvalues not converged
     c_bands:  5 eigenvalues not converged
     c_bands:  1 eigenvalues not converged
     c_bands:  2 eigenvalues not converged
     c_bands:  5 eigenvalues not converged
     c_bands:  1 eigenvalues not converged
     c_bands:  2 eigenvalues not converged
     c_bands:  3 eigenvalues not converged
     ethr =  3.94E-05,  avg # of iterations = 17.9

     total cpu time spent up to now is       65.8 secs

     total energy              =   -4526.71833619 Ry
     estimated scf accuracy    <       0.03853487 Ry

     iteration # 16     ecut=    50.00 Ry     beta= 0.40
     Davidson diagonalization with overlap
     c_bands:  4 eigenvalues not converged
     c_bands:  3 eigenvalues not converged
     ethr =  2.01E-05,  avg # of iterations =  6.2

     total cpu time spent up to now is       70.1 secs

     total energy              =   -4526.71768791 Ry
     estimated scf accuracy    <       0.02098015 Ry

     iteration # 17     ecut=    50.00 Ry     beta= 0.40
     Davidson diagonalization with overlap
     c_bands:  3 eigenvalues not converged
     c_bands:  4 eigenvalues not converged
     ethr =  1.09E-05,  avg # of iterations =  8.7

     total cpu time spent up to now is       75.0 secs

     total energy              =   -4526.71743335 Ry
     estimated scf accuracy    <       0.01014123 Ry

     iteration # 18     ecut=    50.00 Ry     beta= 0.40
     Davidson diagonalization with overlap
     c_bands:  4 eigenvalues not converged
     c_bands:  5 eigenvalues not converged
     c_bands:  1 eigenvalues not converged
     c_bands:  5 eigenvalues not converged
     c_bands:  5 eigenvalues not converged
     c_bands:  3 eigenvalues not converged
     c_bands:  3 eigenvalues not converged
     c_bands:  1 eigenvalues not converged
     c_bands:  2 eigenvalues not converged
     c_bands:  5 eigenvalues not converged
     c_bands:  5 eigenvalues not converged
     ethr =  5.28E-06,  avg # of iterations = 15.2

     total cpu time spent up to now is       82.7 secs

     total energy              =   -4526.71778350 Ry
     estimated scf accuracy    <       0.00318082 Ry

     iteration # 19     ecut=    50.00 Ry     beta= 0.40
     Davidson diagonalization with overlap
     c_bands:  3 eigenvalues not converged
     c_bands:  1 eigenvalues not converged
     c_bands:  4 eigenvalues not converged
     c_bands:  1 eigenvalues not converged
     c_bands:  1 eigenvalues not converged
     c_bands:  1 eigenvalues not converged
     c_bands:  3 eigenvalues not converged
     c_bands:  2 eigenvalues not converged
     c_bands:  5 eigenvalues not converged
     c_bands:  1 eigenvalues not converged
     c_bands:  4 eigenvalues not converged
     c_bands:  1 eigenvalues not converged
     c_bands:  3 eigenvalues not converged
     c_bands:  2 eigenvalues not converged
     c_bands:  1 eigenvalues not converged
     c_bands:  1 eigenvalues not converged
     ethr =  1.66E-06,  avg # of iterations = 20.4

     total cpu time spent up to now is       92.2 secs

     total energy              =   -4526.71845296 Ry
     estimated scf accuracy    <       0.00364320 Ry

     iteration # 20     ecut=    50.00 Ry     beta= 0.40
     Davidson diagonalization with overlap
     c_bands:  1 eigenvalues not converged
     c_bands:  4 eigenvalues not converged
     ethr =  1.66E-06,  avg # of iterations =  5.2

     total cpu time spent up to now is       95.9 secs

     total energy              =   -4526.71797315 Ry
     estimated scf accuracy    <       0.00332736 Ry

     iteration # 21     ecut=    50.00 Ry     beta= 0.40
     Davidson diagonalization with overlap
     c_bands:  2 eigenvalues not converged
     c_bands:  1 eigenvalues not converged
     c_bands:  2 eigenvalues not converged
     c_bands:  2 eigenvalues not converged
     c_bands:  2 eigenvalues not converged
     c_bands:  1 eigenvalues not converged
     c_bands:  2 eigenvalues not converged
     c_bands:  2 eigenvalues not converged
     c_bands:  4 eigenvalues not converged
     c_bands:  4 eigenvalues not converged
     c_bands:  5 eigenvalues not converged
     c_bands:  1 eigenvalues not converged
     c_bands:  2 eigenvalues not converged
     ethr =  1.66E-06,  avg # of iterations = 16.9

     total cpu time spent up to now is      103.5 secs

     total energy              =   -4526.71801244 Ry
     estimated scf accuracy    <       0.00099902 Ry

     iteration # 22     ecut=    50.00 Ry     beta= 0.40
     Davidson diagonalization with overlap
     c_bands:  1 eigenvalues not converged
     ethr =  5.20E-07,  avg # of iterations =  5.2

     total cpu time spent up to now is      107.4 secs

     total energy              =   -4526.71801612 Ry
     estimated scf accuracy    <       0.00034710 Ry

     iteration # 23     ecut=    50.00 Ry     beta= 0.40
     Davidson diagonalization with overlap
     c_bands:  1 eigenvalues not converged
     c_bands:  2 eigenvalues not converged
     ethr =  1.81E-07,  avg # of iterations =  8.4

     total cpu time spent up to now is      112.9 secs

     End of self-consistent calculation

          k = 0.1250-0.0722-0.0510 ( 13242 PWs)   bands (ev):

   -22.0168 -21.8490 -21.8397 -21.8397 -21.8392 -21.7835 -21.7835 -21.7828
    -8.0798  -8.0795  -8.0795  -7.7745  -7.7742  -7.7742  -7.7484  -5.9418
    -5.7932  -5.7928  -5.7927  -5.7370  -5.7366  -5.7365  -5.5780  -4.8499
    -4.7328  -4.7323  -4.7323  -4.5289  -4.5287  -4.5283  -4.4356  -4.4351
    -4.4351  -4.4145  -4.4144  -4.2169  -4.2167  -4.2162  -4.2148  -4.2147
    -4.0414  -1.9055  -1.8842  -1.8839  -1.8839  -1.2712  -1.2709  -1.2709
     6.7663   6.7665   6.7665   6.8212   6.8213   6.8823   7.6145   7.6145
     7.6833   7.6836   7.6836   7.6918   7.6919   7.6921   9.0910   9.0910
     9.0911   9.1201   9.1719   9.1722   9.1722   9.1888   9.1888   9.1890
     9.2551   9.2552   9.2552   9.3474   9.7090   9.7090   9.7202   9.7203
     9.7205   9.7781   9.7782   9.7784   9.8255   9.8258   9.8258   9.8620
     9.8621   9.8622   9.8826   9.8952   9.8952   9.8953   9.9057   9.9058
    12.3456  12.3462  12.3473  12.3781  12.3916  12.3918  12.3921  12.4633
    12.4635  12.4652  12.4711  12.4714  12.4723  12.5038  12.5053  12.5060
    12.5124  12.5126  12.5175

          k = 0.1250-0.0722 0.2552 ( 13183 PWs)   bands (ev):

   -21.9995 -21.8578 -21.8399 -21.8396 -21.8310 -21.8016 -21.7834 -21.7830
    -7.9816  -7.9814  -7.9748  -7.7148  -7.6980  -7.6977  -7.6445  -6.2584
    -6.1856  -6.1853  -6.1801  -6.0342  -6.0340  -5.7262  -5.6808  -4.9313
    -4.7326  -4.7322  -4.6957  -4.4991  -4.4552  -4.4469  -4.4468  -4.3960
    -4.2571  -4.2238  -4.2120  -4.0187  -4.0185  -3.9298  -3.9296  -3.8118
    -3.6944  -2.0566  -2.0081  -2.0079  -1.9928  -1.4417  -1.4414  -1.4368
     6.9242   6.9341   6.9342   6.9374   6.9684   7.1013   7.6142   7.6212
     7.7436   7.7437   7.7742   7.7744   7.7967   7.8545   8.7791   8.7882
     8.7967   8.8540   8.8540   8.9719   9.0095   9.0096   9.2003   9.2006
     9.2047   9.2238   9.2238   9.3091   9.5956   9.6062   9.6137   9.6214
     9.6623   9.6626   9.6784   9.6787   9.8206   9.8206   9.9325   9.9326
     9.9531   9.9538   9.9639  10.0318  10.0645  10.0647  10.0706  10.1254
    12.3569  12.3833  12.3847  12.4021  12.4303  12.4309  12.4391  12.4540
    12.4547  12.4808  12.4813  12.5033  12.5060  12.5080  12.5112  12.5163
    12.5245  12.5332  12.5363

          k = 0.1250-0.0722-0.6634 ( 13156 PWs)   bands (ev):

   -21.9411 -21.9179 -21.8286 -21.8237 -21.8233 -21.8044 -21.8000 -21.7994
    -7.6877  -7.6837  -7.6834  -7.6339  -7.6335  -7.6108  -7.1698  -6.9616
    -6.7629  -6.6722  -6.6721  -6.4259  -6.4259  -6.1668  -5.4491  -5.2866
    -4.6292  -4.6289  -4.5892  -4.5669  -4.5646  -4.5646  -4.3398  -4.3157
    -4.1868  -4.1805  -3.8003  -3.5027  -3.5024  -3.3660  -3.3660  -3.2580
    -2.9068  -2.6629  -2.0928  -2.0860  -2.0857  -1.9606  -1.9603  -1.9496
     7.2267   7.2485   7.3332   7.3644   7.5366   7.5367   7.5899   7.7427
     7.7818   7.7818   7.9159   8.1736   8.1738   8.2280   8.2335   8.3603
     8.3714   8.3716   8.4253   8.4872   8.4873   8.4936   8.6673   8.6675
     9.2610   9.2778   9.3295   9.3330   9.3331   9.5637   9.5656   9.5925
     9.5942   9.5942   9.6818   9.6821   9.8058   9.8060   9.8676   9.9153
    10.0095  10.0102  10.1911  10.2083  10.2085  10.2405  10.2407  10.2768
    12.3937  12.4173  12.4174  12.4367  12.4369  12.4517  12.4779  12.4791
    12.4864  12.4869  12.4903  12.4997  12.5441  12.5645  12.5850  12.5879
    12.5881  12.6134  12.6150

          k = 0.1250-0.0722-0.3572 ( 13192 PWs)   bands (ev):

   -21.9835 -21.8745 -21.8479 -21.8233 -21.8230 -21.8003 -21.7998 -21.7845
    -7.8925  -7.8922  -7.8857  -7.6716  -7.6713  -7.6279  -7.5252  -6.4844
    -6.4520  -6.4095  -6.4094  -6.1149  -6.1149  -6.0201  -5.6291  -5.0672
    -4.6912  -4.6911  -4.6805  -4.5006  -4.5003  -4.4716  -4.4126  -4.2398
    -4.1936  -4.1924  -4.0113  -4.0109  -3.8675  -3.7491  -3.5520  -3.5519
    -3.4712  -2.2096  -2.1038  -2.0658  -2.0655  -1.5944  -1.5912  -1.5910
     6.9863   7.0360   7.0933   7.1248   7.1249   7.3367   7.5471   7.5524
     7.7427   7.7741   7.8898   7.8900   7.9954   7.9955   8.5619   8.5621
     8.6720   8.6918   8.6920   8.7711   8.7953   8.7955   8.9431   9.0930
     9.1183   9.1374   9.3711   9.3712   9.5198   9.6163   9.6164   9.6200
     9.6584   9.6587   9.7440   9.8119   9.8136   9.8282   9.8596   9.9009
     9.9010  10.0136  10.0185  10.0553  10.1148  10.1150  10.1912  10.1915
    12.3679  12.3687  12.4235  12.4244  12.4311  12.4435  12.4642  12.4911
    12.4920  12.4934  12.4988  12.4996  12.5047  12.5147  12.5153  12.5301
    12.5311  12.5589  12.5841

          k = 0.1250 0.2165-0.1531 ( 13183 PWs)   bands (ev):

   -21.9995 -21.8578 -21.8399 -21.8395 -21.8310 -21.8016 -21.7834 -21.7830
    -7.9816  -7.9814  -7.9748  -7.7148  -7.6979  -7.6977  -7.6445  -6.2585
    -6.1856  -6.1853  -6.1801  -6.0343  -6.0340  -5.7262  -5.6808  -4.9313
    -4.7327  -4.7321  -4.6957  -4.4991  -4.4552  -4.4471  -4.4466  -4.3959
    -4.2571  -4.2238  -4.2120  -4.0187  -4.0185  -3.9300  -3.9296  -3.8118
    -3.6944  -2.0566  -2.0081  -2.0079  -1.9928  -1.4417  -1.4414  -1.4368
     6.9242   6.9341   6.9342   6.9374   6.9684   7.1013   7.6142   7.6212
     7.7436   7.7437   7.7742   7.7744   7.7967   7.8545   8.7791   8.7883
     8.7967   8.8540   8.8540   8.9720   9.0096   9.0096   9.2003   9.2006
     9.2048   9.2238   9.2238   9.3091   9.5956   9.6062   9.6137   9.6214
     9.6624   9.6625   9.6784   9.6787   9.8206   9.8206   9.9325   9.9325
     9.9531   9.9538   9.9639  10.0318  10.0646  10.0646  10.0706  10.1253
    12.3570  12.3836  12.3847  12.4023  12.4307  12.4308  12.4401  12.4541
    12.4543  12.4807  12.4831  12.5027  12.5047  12.5079  12.5097  12.5160
    12.5258  12.5336  12.5405

          k = 0.1250 0.2165-0.7655 ( 13176 PWs)   bands (ev):

   -21.9536 -21.8874 -21.8543 -21.8312 -21.8172 -21.8104 -21.7973 -21.7869
    -7.7303  -7.7185  -7.6973  -7.5775  -7.5613  -7.5303  -7.3711  -6.8154
    -6.8108  -6.7773  -6.6546  -6.5951  -6.1093  -5.9784  -5.7625  -5.2968
    -4.6886  -4.6637  -4.6142  -4.5456  -4.5406  -4.4797  -4.3874  -4.3005
    -4.1024  -4.0026  -3.9669  -3.7113  -3.4230  -3.3012  -3.2470  -3.1694
    -3.1014  -2.4387  -2.2472  -2.2169  -2.2131  -1.8895  -1.8849  -1.8699
     7.1741   7.2339   7.3818   7.4129   7.4781   7.5414   7.5571   7.7104
     7.7800   7.8394   7.9443   7.9820   8.1224   8.2373   8.2932   8.3461
     8.4060   8.4486   8.4621   8.5042   8.5791   8.6789   8.8219   8.9394
     8.9898   9.0360   9.1881   9.2137   9.3947   9.3973   9.4462   9.5380
     9.5940   9.6198   9.6824   9.6995   9.7678   9.7990   9.8213  10.0309
    10.1181  10.1301  10.1639  10.1772  10.2159  10.2578  10.3043  10.3200
    12.3824  12.3986  12.4114  12.4226  12.4378  12.4676  12.4922  12.5021
    12.5041  12.5055  12.5083  12.5232  12.5429  12.5439  12.5456  12.5643
    12.5674  12.5918  12.6000

          k = 0.1250-0.6495 0.1531 ( 13156 PWs)   bands (ev):

   -21.9411 -21.9179 -21.8286 -21.8237 -21.8231 -21.8046 -21.8000 -21.7994
    -7.6877  -7.6836  -7.6835  -7.6337  -7.6336  -7.6108  -7.1699  -6.9616
    -6.7629  -6.6723  -6.6720  -6.4261  -6.4257  -6.1668  -5.4491  -5.2866
    -4.6292  -4.6288  -4.5891  -4.5668  -4.5647  -4.5644  -4.3397  -4.3157
    -4.1868  -4.1805  -3.8003  -3.5028  -3.5023  -3.3662  -3.3659  -3.2580
    -2.9068  -2.6629  -2.0928  -2.0859  -2.0858  -1.9605  -1.9604  -1.9496
     7.2267   7.2485   7.3332   7.3644   7.5366   7.5367   7.5899   7.7427
     7.7818   7.7818   7.9159   8.1735   8.1738   8.2280   8.2335   8.3603
     8.3714   8.3716   8.4253   8.4872   8.4873   8.4936   8.6672   8.6675
     9.2609   9.2778   9.3295   9.3330   9.3330   9.5637   9.5656   9.5924
     9.5942   9.5944   9.6818   9.6821   9.8059   9.8060   9.8676   9.9153
    10.0095  10.0102  10.1911  10.2084  10.2084  10.2406  10.2406  10.2768
    12.3937  12.4174  12.4177  12.4365  12.4378  12.4520  12.4785  12.4787
    12.4868  12.4875  12.4907  12.5002  12.5436  12.5629  12.5850  12.5868
    12.5924  12.6134  12.6176

          k = 0.1250-0.6495 0.4593 ( 13176 PWs)   bands (ev):

   -21.9536 -21.8875 -21.8543 -21.8311 -21.8172 -21.8104 -21.7973 -21.7869
    -7.7303  -7.7185  -7.6973  -7.5775  -7.5613  -7.5303  -7.3711  -6.8154
    -6.8108  -6.7773  -6.6547  -6.5951  -6.1093  -5.9784  -5.7625  -5.2968
    -4.6886  -4.6636  -4.6142  -4.5455  -4.5406  -4.4796  -4.3874  -4.3005
    -4.1024  -4.0026  -3.9668  -3.7113  -3.4230  -3.3012  -3.2470  -3.1695
    -3.1015  -2.4388  -2.2472  -2.2168  -2.2131  -1.8895  -1.8849  -1.8699
     7.1741   7.2339   7.3818   7.4128   7.4781   7.5414   7.5571   7.7104
     7.7800   7.8394   7.9443   7.9820   8.1224   8.2373   8.2932   8.3461
     8.4060   8.4486   8.4621   8.5042   8.5791   8.6789   8.8219   8.9394
     8.9898   9.0360   9.1881   9.2136   9.3946   9.3973   9.4462   9.5380
     9.5940   9.6198   9.6825   9.6995   9.7678   9.7990   9.8213  10.0309
    10.1181  10.1301  10.1639  10.1772  10.2159  10.2578  10.3043  10.3200
    12.3826  12.3983  12.4113  12.4227  12.4378  12.4669  12.4921  12.5016
    12.5036  12.5053  12.5079  12.5232  12.5431  12.5433  12.5457  12.5631
    12.5727  12.5905  12.6028

          k = 0.1250-0.6495-0.4593 ( 13157 PWs)   bands (ev):

   -21.9250 -21.8787 -21.8684 -21.8403 -21.8400 -21.8212 -21.7832 -21.7827
    -7.5019  -7.5017  -7.4750  -7.4253  -7.4252  -7.3868  -7.3445  -7.1242
    -7.1239  -7.1047  -6.8977  -6.5831  -6.5827  -6.2707  -5.4260  -5.2532
    -4.7471  -4.7465  -4.5345  -4.4795  -4.4548  -4.4543  -4.4317  -4.3776
    -4.3751  -4.3094  -3.4411  -3.1942  -3.1937  -2.9313  -2.7871  -2.7869
    -2.6675  -2.5921  -2.5339  -2.4919  -2.4919  -2.2266  -2.2264  -2.1707
     7.4746   7.4804   7.5986   7.5987   7.7267   7.7481   7.8022   7.8738
     7.8972   7.8974   7.9597   7.9605   8.0046   8.0453   8.0456   8.2718
     8.3292   8.3293   8.4668   8.4850   8.4850   8.4939   8.5924   8.7706
     8.8486   9.1165   9.1165   9.2264   9.2694   9.2696   9.3124   9.3438
     9.3776   9.3777   9.4708   9.4712   9.7909   9.7909   9.9936   9.9936
    10.1652  10.1663  10.2251  10.2357  10.4078  10.4479  10.4480  10.4698
    12.4042  12.4051  12.4109  12.4344  12.4361  12.4661  12.4679  12.5043
    12.5052  12.5169  12.5209  12.5215  12.5455  12.5569  12.5583  12.5765
    12.6295  12.6481  12.6508

          k = 0.1250-0.6495-0.1531 ( 13166 PWs)   bands (ev):

   -21.9143 -21.8945 -21.8713 -21.8578 -21.8140 -21.8036 -21.7938 -21.7901
    -7.4999  -7.4778  -7.4690  -7.4537  -7.4362  -7.3704  -7.2484  -7.1594
    -7.1447  -7.1030  -7.0223  -6.8372  -6.2006  -5.9165  -5.7850  -5.5498
    -4.6817  -4.6706  -4.5717  -4.5622  -4.5123  -4.4760  -4.4010  -4.3628
    -4.0347  -4.0054  -3.7250  -3.5762  -2.9940  -2.8559  -2.8391  -2.8074
    -2.6707  -2.6534  -2.4278  -2.3799  -2.3668  -2.2982  -2.2833  -2.2436
     7.4793   7.5118   7.5583   7.5929   7.7259   7.7589   7.7824   7.8202
     7.8724   7.9045   7.9168   8.0212   8.1196   8.1264   8.1814   8.2428
     8.3214   8.3217   8.3406   8.4504   8.4571   8.5929   8.6187   8.7080
     8.8032   8.8752   8.8958   8.9571   9.2896   9.3890   9.4132   9.4790
     9.4975   9.5522   9.5923   9.6642   9.7125   9.7161   9.9517  10.0393
    10.2194  10.2199  10.2231  10.2859  10.3166  10.3713  10.3915  10.3979
    12.3993  12.4001  12.4057  12.4140  12.4594  12.4694  12.4975  12.5093
    12.5135  12.5139  12.5263  12.5333  12.5494  12.5530  12.5685  12.5925
    12.5944  12.5999  12.6184

          k = 0.1250-0.3608 0.0510 ( 13192 PWs)   bands (ev):

   -21.9835 -21.8746 -21.8479 -21.8233 -21.8230 -21.8003 -21.7998 -21.7845
    -7.8924  -7.8922  -7.8857  -7.6715  -7.6714  -7.6279  -7.5252  -6.4844
    -6.4520  -6.4097  -6.4093  -6.1151  -6.1147  -6.0201  -5.6291  -5.0672
    -4.6913  -4.6910  -4.6805  -4.5006  -4.5002  -4.4715  -4.4126  -4.2397
    -4.1934  -4.1925  -4.0114  -4.0109  -3.8676  -3.7492  -3.5522  -3.5518
    -3.4713  -2.2096  -2.1038  -2.0657  -2.0655  -1.5944  -1.5912  -1.5910
     6.9863   7.0360   7.0933   7.1248   7.1249   7.3367   7.5471   7.5524
     7.7427   7.7741   7.8898   7.8900   7.9954   7.9955   8.5620   8.5621
     8.6720   8.6918   8.6921   8.7712   8.7954   8.7955   8.9432   9.0930
     9.1183   9.1374   9.3711   9.3712   9.5197   9.6163   9.6164   9.6200
     9.6584   9.6587   9.7441   9.8119   9.8136   9.8283   9.8596   9.9009
     9.9010  10.0136  10.0185  10.0553  10.1149  10.1150  10.1913  10.1914
    12.3682  12.3688  12.4238  12.4240  12.4312  12.4438  12.4643  12.4900
    12.4924  12.4929  12.4987  12.4989  12.5050  12.5150  12.5181  12.5294
    12.5297  12.5601  12.5786

          k = 0.1250-0.3608 0.3572 ( 13176 PWs)   bands (ev):

   -21.9536 -21.8875 -21.8543 -21.8312 -21.8171 -21.8105 -21.7973 -21.7869
    -7.7303  -7.7185  -7.6973  -7.5775  -7.5613  -7.5303  -7.3711  -6.8154
    -6.8108  -6.7773  -6.6546  -6.5951  -6.1093  -5.9784  -5.7625  -5.2968
    -4.6886  -4.6637  -4.6141  -4.5456  -4.5406  -4.4797  -4.3874  -4.3005
    -4.1024  -4.0026  -3.9668  -3.7113  -3.4230  -3.3012  -3.2470  -3.1694
    -3.1014  -2.4388  -2.2472  -2.2169  -2.2131  -1.8895  -1.8849  -1.8699
     7.1741   7.2339   7.3818   7.4129   7.4781   7.5414   7.5571   7.7104
     7.7800   7.8394   7.9443   7.9820   8.1224   8.2373   8.2932   8.3461
     8.4060   8.4486   8.4621   8.5042   8.5791   8.6789   8.8219   8.9394
     8.9898   9.0360   9.1881   9.2137   9.3947   9.3973   9.4462   9.5380
     9.5940   9.6198   9.6825   9.6995   9.7678   9.7990   9.8213  10.0309
    10.1181  10.1301  10.1639  10.1772  10.2158  10.2578  10.3043  10.3201
    12.3824  12.3985  12.4114  12.4225  12.4376  12.4673  12.4922  12.5016
    12.5044  12.5057  12.5081  12.5236  12.5421  12.5434  12.5458  12.5631
    12.5684  12.5944  12.5997

          k = 0.1250-0.3608-0.5613 ( 13166 PWs)   bands (ev):

   -21.9144 -21.8944 -21.8713 -21.8578 -21.8140 -21.8036 -21.7938 -21.7902
    -7.4999  -7.4778  -7.4690  -7.4537  -7.4363  -7.3704  -7.2484  -7.1594
    -7.1447  -7.1030  -7.0223  -6.8372  -6.2005  -5.9165  -5.7850  -5.5498
    -4.6816  -4.6706  -4.5717  -4.5622  -4.5123  -4.4760  -4.4011  -4.3628
    -4.0347  -4.0053  -3.7250  -3.5761  -2.9940  -2.8559  -2.8391  -2.8074
    -2.6707  -2.6534  -2.4278  -2.3799  -2.3668  -2.2982  -2.2834  -2.2436
     7.4793   7.5118   7.5583   7.5929   7.7259   7.7589   7.7824   7.8202
     7.8724   7.9045   7.9168   8.0212   8.1196   8.1264   8.1814   8.2428
     8.3212   8.3218   8.3405   8.4504   8.4571   8.5929   8.6187   8.7080
     8.8032   8.8752   8.8958   8.9571   9.2896   9.3890   9.4132   9.4790
     9.4976   9.5522   9.5923   9.6643   9.7124   9.7162   9.9517  10.0393
    10.2194  10.2199  10.2231  10.2859  10.3166  10.3713  10.3915  10.3979
    12.3993  12.4001  12.4055  12.4140  12.4593  12.4692  12.4975  12.5093
    12.5133  12.5141  12.5259  12.5334  12.5498  12.5529  12.5679  12.5920
    12.5947  12.5996  12.6046

          k = 0.1250-0.3608-0.2552 ( 13163 PWs)   bands (ev):

   -21.9674 -21.8647 -21.8402 -21.8400 -21.8350 -21.8246 -21.7833 -21.7828
    -7.7873  -7.7870  -7.7701  -7.5740  -7.5619  -7.5617  -7.4874  -6.6837
    -6.6796  -6.6793  -6.5759  -6.3455  -6.3451  -6.0329  -5.5739  -5.0780
    -4.7409  -4.7403  -4.6267  -4.4709  -4.4524  -4.4519  -4.4453  -4.3823
    -4.3339  -4.2550  -3.8097  -3.5423  -3.5419  -3.3991  -3.3988  -3.3636
    -3.1955  -2.3132  -2.2342  -2.2340  -2.2172  -1.7690  -1.7688  -1.7477
     7.1503   7.1618   7.2408   7.2409   7.3491   7.4876   7.6689   7.6847
     7.8313   7.8315   7.9039   7.9148   7.9151   8.0753   8.3179   8.3358
     8.5746   8.6278   8.6278   8.6967   8.6967   8.8337   8.9999   9.1011
     9.1637   9.1639   9.1651   9.2322   9.2324   9.3353   9.4171   9.4344
     9.5071   9.5072   9.5599   9.5602   9.8029   9.8030   9.9711   9.9711
    10.0561  10.0621  10.1913  10.2136  10.2392  10.3048  10.3049  10.3455
    12.3899  12.4202  12.4210  12.4233  12.4250  12.4281  12.4658  12.4867
    12.4874  12.5067  12.5068  12.5270  12.5286  12.5305  12.5608  12.5683
    12.5713  12.5830  12.5929

          k = 0.3750-0.2165-0.1531 ( 13173 PWs)   bands (ev):

   -21.9686 -21.8991 -21.8234 -21.8234 -21.8230 -21.8002 -21.8002 -21.7995
    -7.8197  -7.8194  -7.8193  -7.6561  -7.6559  -7.6558  -7.3614  -6.6810
    -6.4169  -6.4165  -6.4163  -6.3544  -6.3541  -6.3539  -5.3840  -5.0808
    -4.6490  -4.6485  -4.6485  -4.5260  -4.5255  -4.5255  -4.3578  -4.3578
    -4.2752  -4.2751  -3.7630  -3.7628  -3.7625  -3.5336  -3.5333  -3.5329
    -3.2214  -2.4012  -2.0734  -2.0732  -2.0731  -1.7201  -1.7198  -1.7198
     7.0740   7.0740   7.2711   7.2712   7.2713   7.4091   7.4092   7.5636
     7.8539   7.8540   7.8540   8.0713   8.0713   8.0715   8.4424   8.4427
     8.4427   8.4922   8.6643   8.6643   8.6645   8.6998   8.7002   8.7002
     9.3665   9.3666   9.3666   9.4350   9.6158   9.6158   9.6159   9.6501
     9.7197   9.7197   9.7744   9.7744   9.7747   9.8093   9.8093   9.8233
     9.8233   9.8235  10.1412  10.1412  10.1413  10.1751  10.1751  10.1753
    12.4019  12.4022  12.4034  12.4466  12.4473  12.4479  12.4546  12.4547
    12.4555  12.4815  12.4823  12.4834  12.5496  12.5510  12.5631  12.5636
    12.5647  12.5979  12.6003

          k = 0.3750-0.2165 0.1531 ( 13163 PWs)   bands (ev):

   -21.9674 -21.8647 -21.8402 -21.8399 -21.8351 -21.8245 -21.7833 -21.7828
    -7.7873  -7.7870  -7.7701  -7.5740  -7.5620  -7.5617  -7.4874  -6.6837
    -6.6796  -6.6794  -6.5759  -6.3453  -6.3453  -6.0329  -5.5739  -5.0780
    -4.7409  -4.7403  -4.6268  -4.4709  -4.4522  -4.4520  -4.4453  -4.3823
    -4.3340  -4.2549  -3.8096  -3.5421  -3.5420  -3.3990  -3.3988  -3.3636
    -3.1955  -2.3132  -2.2342  -2.2340  -2.2172  -1.7690  -1.7688  -1.7477
     7.1503   7.1618   7.2408   7.2409   7.3491   7.4876   7.6688   7.6847
     7.8313   7.8314   7.9039   7.9148   7.9150   8.0753   8.3179   8.3358
     8.5746   8.6278   8.6278   8.6966   8.6967   8.8337   8.9999   9.1011
     9.1637   9.1639   9.1651   9.2321   9.2324   9.3353   9.4171   9.4344
     9.5070   9.5073   9.5600   9.5602   9.8029   9.8030   9.9711   9.9712
    10.0562  10.0621  10.1912  10.2136  10.2392  10.3048  10.3049  10.3455
    12.3902  12.4204  12.4211  12.4236  12.4243  12.4281  12.4659  12.4868
    12.4872  12.5063  12.5071  12.5264  12.5292  12.5301  12.5631  12.5711
    12.5725  12.5768  12.5899

          k = 0.3750-0.2165-0.7655 ( 13157 PWs)   bands (ev):

   -21.9250 -21.8787 -21.8684 -21.8404 -21.8400 -21.8211 -21.7832 -21.7827
    -7.5019  -7.5017  -7.4750  -7.4255  -7.4251  -7.3868  -7.3445  -7.1241
    -7.1239  -7.1047  -6.8977  -6.5829  -6.5829  -6.2708  -5.4260  -5.2532
    -4.7471  -4.7466  -4.5345  -4.4796  -4.4546  -4.4544  -4.4318  -4.3776
    -4.3751  -4.3094  -3.4411  -3.1941  -3.1938  -2.9313  -2.7870  -2.7869
    -2.6675  -2.5921  -2.5339  -2.4921  -2.4918  -2.2266  -2.2264  -2.1707
     7.4746   7.4804   7.5986   7.5987   7.7267   7.7481   7.8022   7.8739
     7.8972   7.8973   7.9595   7.9607   8.0046   8.0453   8.0455   8.2718
     8.3292   8.3293   8.4667   8.4850   8.4850   8.4939   8.5924   8.7706
     8.8485   9.1165   9.1166   9.2264   9.2693   9.2696   9.3124   9.3438
     9.3775   9.3778   9.4709   9.4711   9.7909   9.7909   9.9935   9.9936
    10.1651  10.1663  10.2251  10.2357  10.4078  10.4478  10.4480  10.4698
    12.4042  12.4051  12.4110  12.4347  12.4350  12.4662  12.4680  12.5043
    12.5044  12.5170  12.5205  12.5217  12.5453  12.5566  12.5583  12.5772
    12.6296  12.6458  12.6493

          k = 0.3750-0.2165-0.4593 ( 13169 PWs)   bands (ev):

   -21.9281 -21.9049 -21.8653 -21.8239 -21.8235 -21.7999 -21.7995 -21.7940
    -7.6180  -7.6176  -7.5300  -7.5297  -7.5271  -7.4936  -7.2454  -7.0230
    -7.0018  -6.9326  -6.9325  -6.4320  -6.4320  -5.9059  -5.6025  -5.5970
    -4.6257  -4.6253  -4.5941  -4.5940  -4.5891  -4.5100  -4.4224  -4.2929
    -4.0123  -3.9138  -3.8791  -3.4783  -3.4781  -3.0962  -2.9830  -2.9830
    -2.9120  -2.5766  -2.2479  -2.2450  -2.2447  -2.1235  -2.0964  -2.0961
     7.3041   7.3820   7.4896   7.5064   7.6275   7.7163   7.7163   7.7672
     7.8396   7.8605   7.8605   8.0512   8.2293   8.2294   8.2441   8.2443
     8.2595   8.3369   8.3714   8.3716   8.5854   8.6548   8.6551   8.7492
     8.7848   8.8212   9.2299   9.2770   9.3032   9.3032   9.4968   9.4968
     9.5086   9.6480   9.6482   9.6734   9.7551   9.7553  10.0187  10.0214
    10.0665  10.1463  10.2161  10.2570  10.2572  10.3238  10.3320  10.3322
    12.3946  12.3948  12.3998  12.4337  12.4341  12.4762  12.4995  12.4996
    12.5098  12.5166  12.5337  12.5348  12.5388  12.5536  12.5847  12.5913
    12.5943  12.5960  12.6013

          k = 0.3750-0.5052-0.0510 ( 13169 PWs)   bands (ev):

   -21.9281 -21.9049 -21.8653 -21.8238 -21.8235 -21.7999 -21.7996 -21.7939
    -7.6178  -7.6177  -7.5300  -7.5298  -7.5270  -7.4936  -7.2454  -7.0230
    -7.0018  -6.9327  -6.9324  -6.4322  -6.4318  -5.9059  -5.6025  -5.5970
    -4.6257  -4.6252  -4.5943  -4.5940  -4.5890  -4.5099  -4.4224  -4.2928
    -4.0123  -3.9138  -3.8791  -3.4785  -3.4780  -3.0962  -2.9832  -2.9828
    -2.9120  -2.5765  -2.2479  -2.2449  -2.2448  -2.1235  -2.0962  -2.0961
     7.3041   7.3820   7.4896   7.5063   7.6275   7.7162   7.7163   7.7672
     7.8396   7.8605   7.8605   8.0512   8.2294   8.2294   8.2440   8.2444
     8.2595   8.3369   8.3714   8.3716   8.5854   8.6548   8.6551   8.7492
     8.7848   8.8212   9.2299   9.2770   9.3032   9.3032   9.4968   9.4968
     9.5086   9.6480   9.6482   9.6734   9.7552   9.7552  10.0187  10.0214
    10.0665  10.1463  10.2161  10.2571  10.2571  10.3238  10.3321  10.3321
    12.3945  12.3949  12.3997  12.4336  12.4346  12.4764  12.4994  12.5002
    12.5098  12.5162  12.5341  12.5344  12.5388  12.5543  12.5849  12.5880
    12.5928  12.5962  12.5978

          k = 0.3750-0.5052 0.2552 ( 13166 PWs)   bands (ev):

   -21.9143 -21.8944 -21.8714 -21.8577 -21.8140 -21.8037 -21.7938 -21.7901
    -7.4999  -7.4778  -7.4690  -7.4537  -7.4362  -7.3704  -7.2484  -7.1594
    -7.1447  -7.1030  -7.0223  -6.8372  -6.2006  -5.9165  -5.7850  -5.5498
    -4.6817  -4.6706  -4.5718  -4.5621  -4.5123  -4.4760  -4.4010  -4.3627
    -4.0347  -4.0054  -3.7250  -3.5762  -2.9940  -2.8559  -2.8391  -2.8074
    -2.6707  -2.6534  -2.4278  -2.3799  -2.3668  -2.2982  -2.2833  -2.2436
     7.4793   7.5118   7.5582   7.5929   7.7259   7.7589   7.7824   7.8202
     7.8724   7.9045   7.9168   8.0212   8.1196   8.1264   8.1814   8.2428
     8.3214   8.3217   8.3406   8.4504   8.4571   8.5929   8.6187   8.7080
     8.8032   8.8752   8.8958   8.9571   9.2897   9.3890   9.4132   9.4790
     9.4975   9.5523   9.5923   9.6642   9.7125   9.7161   9.9517  10.0393
    10.2195  10.2198  10.2231  10.2859  10.3166  10.3713  10.3915  10.3979
    12.3991  12.4000  12.4057  12.4143  12.4596  12.4694  12.4971  12.5094
    12.5136  12.5139  12.5260  12.5333  12.5493  12.5525  12.5691  12.5923
    12.5940  12.5998  12.6180

     the Fermi energy is    11.6746 ev

!    total energy              =   -4526.71803087 Ry

     total all-electron energy =     -6268.268309 Ry
     estimated scf accuracy    <       0.00009208 Ry
     smearing contrib. (-TS)   =       0.00000000 Ry
     internal energy E=F+TS    =   -4526.71803087 Ry

     The total energy is F=E-TS. E is the sum of the following terms:
     one-electron contribution =     -99.06360677 Ry
     hartree contribution      =     198.72773269 Ry
     xc contribution           =    -202.40163076 Ry
     ewald contribution        =   -1006.38839996 Ry
     one-center paw contrib.   =   -3417.59212607 Ry

     convergence has been achieved in  23 iterations

     Writing all to output data dir ./out/CeO2.save/
 
     init_run     :      3.02s CPU      3.39s WALL (       1 calls)
     electrons    :    105.56s CPU    109.10s WALL (       1 calls)

     Called by init_run:
     wfcinit      :      2.50s CPU      2.69s WALL (       1 calls)
     potinit      :      0.25s CPU      0.30s WALL (       1 calls)
     hinit0       :      0.12s CPU      0.17s WALL (       1 calls)

     Called by electrons:
     c_bands      :     90.79s CPU     91.88s WALL (      23 calls)
     sum_band     :      8.49s CPU      9.66s WALL (      23 calls)
     v_of_rho     :      0.18s CPU      0.21s WALL (      24 calls)
     newd         :      1.40s CPU      2.32s WALL (      24 calls)
     PAW_pot      :      4.77s CPU      5.08s WALL (      24 calls)
     mix_rho      :      0.08s CPU      0.10s WALL (      23 calls)

     Called by c_bands:
     init_us_2    :      0.74s CPU      0.76s WALL (     940 calls)
     init_us_2:cp :      0.73s CPU      0.76s WALL (     940 calls)
     cegterg      :     86.97s CPU     87.98s WALL (     470 calls)

     Called by *egterg:
     cdiaghg      :     41.89s CPU     42.15s WALL (    3800 calls)
     h_psi        :     33.39s CPU     34.10s WALL (    3820 calls)
     s_psi        :      3.44s CPU      3.52s WALL (    3820 calls)
     g_psi        :      0.09s CPU      0.09s WALL (    3330 calls)

     Called by h_psi:
     h_psi:calbec :      4.44s CPU      4.56s WALL (    3820 calls)
     vloc_psi     :     24.63s CPU     25.11s WALL (    3820 calls)
     add_vuspsi   :      4.15s CPU      4.26s WALL (    3820 calls)

     General routines
     calbec       :      5.72s CPU      5.88s WALL (    4280 calls)
     fft          :      0.12s CPU      0.14s WALL (     310 calls)
     ffts         :      0.07s CPU      0.11s WALL (      47 calls)
     fftw         :     26.60s CPU     27.17s WALL (  334118 calls)
     interpolate  :      0.05s CPU      0.07s WALL (      24 calls)
 
     Parallel routines
 
     PWSCF        :   1m49.25s CPU   1m55.18s WALL

 
   This run was terminated on:  21:40:15  13Sep2022            

=------------------------------------------------------------------------------=
   JOB DONE.
=------------------------------------------------------------------------------=
